Program Version,EnergyPlus, Version 8.4.0-09f5359d8a, YMD=2017.02.23 11:46
1,5,Environment Title[],Latitude[deg],Longitude[deg],Time Zone[],Elevation[m]
2,6,Day of Simulation[],Month[],Day of Month[],DST Indicator[1=yes 0=no],Hour[],StartMinute[],EndMinute[],DayType
3,3,Cumulative Day of Simulation[],Month[],Day of Month[],DST Indicator[1=yes 0=no],DayType  ! When Daily Meters Requested
4,2,Cumulative Days of Simulation[],Month[]  ! When Monthly Meters Requested
5,1,Cumulative Days of Simulation[] ! When Run Period Meters Requested
18,1,Electricity:Facility [J] !Hourly
959,1,Heating:Electricity [J] !Hourly
908,1,Cooling:Electricity [J] !Hourly
48,1,InteriorLights:Electricity [J] !Hourly
866,1,ExteriorLights:Electricity [J] !Hourly
163,1,InteriorEquipment:Electricity [J] !Hourly
841,1,Fans:Electricity [J] !Hourly
997,1,Pumps:Electricity [J] !Hourly
327,1,Gas:Facility [J] !Hourly
948,1,Heating:Gas [J] !Hourly
347,1,WaterSystems:Gas [J] !Hourly
End of Data Dictionary
1,Las Vegas Mccarran Intl Ap NV USA TMY3 WMO#=723860,  36.08,-115.15,  -8.00, 648.00
2,1, 1, 1, 0, 1, 0.00,60.00,Holiday
18,15220867.5662545
48,990009.65232
163,5940057.91392
327,72000.
347,72000.
841,0.0
866,8290800.
908,0.0
948,0.0
959,0.0
997,1.453846153846154E-005
2,1, 1, 1, 0, 2, 0.00,60.00,Holiday
18,15220867.5662545
48,990009.65232
163,5940057.91392
327,1631054.61027225
347,1631054.61027225
841,0.0
866,8290800.
908,0.0
948,0.0
959,0.0
997,1.453846153846154E-005
2,1, 1, 1, 0, 3, 0.00,60.00,Holiday
18,15220867.5662545
48,990009.65232
163,5940057.91392
327,72000.
347,72000.
841,0.0
866,8290800.
908,0.0
948,0.0
959,0.0
997,1.453846153846154E-005
2,1, 1, 1, 0, 4, 0.00,60.00,Holiday
18,15220867.5662545
48,990009.65232
163,5940057.91392
327,1631002.00209187
347,1631002.00209187
841,0.0
866,8290800.
908,0.0
948,0.0
959,0.0
997,1.453846153846154E-005
2,1, 1, 1, 0, 5, 0.00,60.00,Holiday
18,15220867.5662545
48,990009.65232
163,5940057.91392
327,1631073.59015426
347,1631073.59015426
841,0.0
866,8290800.
908,0.0
948,0.0
959,0.0
997,1.453846153846154E-005
2,1, 1, 1, 0, 6, 0.00,60.00,Holiday
18,15220867.5662545
48,990009.65232
163,5940057.91392
327,72000.
347,72000.
841,0.0
866,8290800.
908,0.0
948,0.0
959,0.0
997,1.453846153846154E-005
2,1, 1, 1, 0, 7, 0.00,60.00,Holiday
18,13839067.5662545
48,990009.65232
163,5940057.91392
327,1631059.41720757
347,1631059.41720757
841,0.0
866,6909000.
908,0.0
948,0.0
959,0.0
997,1.453846153846154E-005
2,1, 1, 1, 0, 8, 0.00,60.00,Holiday
18,6930067.56625454
48,990009.65232
163,5940057.91392
327,1631072.48388635
347,1631072.48388635
841,0.0
866,0.0
908,0.0
948,0.0
959,0.0
997,1.453846153846154E-005
2,1, 1, 1, 0, 9, 0.00,60.00,Holiday
18,6930067.56625454
48,990009.65232
163,5940057.91392
327,72000.
347,72000.
841,0.0
866,0.0
908,0.0
948,0.0
959,0.0
997,1.453846153846154E-005
2,1, 1, 1, 0,10, 0.00,60.00,Holiday
18,6930067.56625454
48,990009.65232
163,5940057.91392
327,1631110.16211352
347,1631110.16211352
841,0.0
866,0.0
908,0.0
948,0.0
959,0.0
997,1.453846153846154E-005
2,1, 1, 1, 0,11, 0.00,60.00,Holiday
18,6930067.56625454
48,990009.65232
163,5940057.91392
327,1631093.86769092
347,1631093.86769092
841,0.0
866,0.0
908,0.0
948,0.0
959,0.0
997,1.453846153846154E-005
2,1, 1, 1, 0,12, 0.00,60.00,Holiday
18,6930067.56625454
48,990009.65232
163,5940057.91392
327,72000.
347,72000.
841,0.0
866,0.0
908,0.0
948,0.0
959,0.0
997,1.453846153846154E-005
2,1, 1, 1, 0,13, 0.00,60.00,Holiday
18,6930067.56625454
48,990009.65232
163,5940057.91392
327,1631084.92704231
347,1631084.92704231
841,0.0
866,0.0
908,0.0
948,0.0
959,0.0
997,1.453846153846154E-005
2,1, 1, 1, 0,14, 0.00,60.00,Holiday
18,6930067.56625454
48,990009.65232
163,5940057.91392
327,1631047.25578157
347,1631047.25578157
841,0.0
866,0.0
908,0.0
948,0.0
959,0.0
997,1.453846153846154E-005
2,1, 1, 1, 0,15, 0.00,60.00,Holiday
18,6930067.56625454
48,990009.65232
163,5940057.91392
327,72000.
347,72000.
841,0.0
866,0.0
908,0.0
948,0.0
959,0.0
997,1.453846153846154E-005
2,1, 1, 1, 0,16, 0.00,60.00,Holiday
18,6930067.56625454
48,990009.65232
163,5940057.91392
327,1631092.63532087
347,1631092.63532087
841,0.0
866,0.0
908,0.0
948,0.0
959,0.0
997,1.453846153846154E-005
2,1, 1, 1, 0,17, 0.00,60.00,Holiday
18,11075467.5662545
48,990009.65232
163,5940057.91392
327,72000.
347,72000.
841,0.0
866,4145400.
908,0.0
948,0.0
959,0.0
997,1.453846153846154E-005
2,1, 1, 1, 0,18, 0.00,60.00,Holiday
18,15220867.5662545
48,990009.65232
163,5940057.91392
327,1631113.74474085
347,1631113.74474085
841,0.0
866,8290800.
908,0.0
948,0.0
959,0.0
997,1.453846153846154E-005
2,1, 1, 1, 0,19, 0.00,60.00,Holiday
18,15220867.5662545
48,990009.65232
163,5940057.91392
327,1631089.49553288
347,1631089.49553288
841,0.0
866,8290800.
908,0.0
948,0.0
959,0.0
997,1.453846153846154E-005
2,1, 1, 1, 0,20, 0.00,60.00,Holiday
18,15220867.5662545
48,990009.65232
163,5940057.91392
327,72000.
347,72000.
841,0.0
866,8290800.
908,0.0
948,0.0
959,0.0
997,1.453846153846154E-005
2,1, 1, 1, 0,21, 0.00,60.00,Holiday
18,15220867.5662545
48,990009.65232
163,5940057.91392
327,1631093.62299331
347,1631093.62299331
841,0.0
866,8290800.
908,0.0
948,0.0
959,0.0
997,1.453846153846154E-005
2,1, 1, 1, 0,22, 0.00,60.00,Holiday
18,15220867.5662545
48,990009.65232
163,5940057.91392
327,1631082.2072584
347,1631082.2072584
841,0.0
866,8290800.
908,0.0
948,0.0
959,0.0
997,1.453846153846154E-005
2,1, 1, 1, 0,23, 0.00,60.00,Holiday
18,15220867.5662545
48,990009.65232
163,5940057.91392
327,72000.
347,72000.
841,0.0
866,8290800.
908,0.0
948,0.0
959,0.0
997,1.453846153846154E-005
2,1, 1, 1, 0,24, 0.00,60.00,Holiday
18,15220867.5662545
48,990009.65232
163,5940057.91392
327,1631025.72533752
347,1631025.72533752
841,0.0
866,8290800.
908,0.0
948,0.0
959,0.0
997,1.453846153846154E-005
2,2, 1, 2, 0, 1, 0.00,60.00,Monday
18,17200886.8708945
48,990009.65232
163,7920077.21856
327,1631113.12497219
347,1631113.12497219
841,0.0
866,8290800.
908,0.0
948,0.0
959,0.0
997,1.453846153846154E-005
2,2, 1, 2, 0, 2, 0.00,60.00,Monday
18,17200886.8708945
48,990009.65232
163,7920077.21856
327,72000.
347,72000.
841,0.0
866,8290800.
908,0.0
948,0.0
959,0.0
997,1.453846153846154E-005
2,2, 1, 2, 0, 3, 0.00,60.00,Monday
18,17200886.8708945
48,990009.65232
163,7920077.21856
327,1631079.33035023
347,1631079.33035023
841,0.0
866,8290800.
908,0.0
948,0.0
959,0.0
997,1.453846153846154E-005
2,2, 1, 2, 0, 4, 0.00,60.00,Monday
18,17200886.8708945
48,990009.65232
163,7920077.21856
327,1631045.46035158
347,1631045.46035158
841,0.0
866,8290800.
908,0.0
948,0.0
959,0.0
997,1.453846153846154E-005
2,2, 1, 2, 0, 5, 0.00,60.00,Monday
18,17200886.8708945
48,990009.65232
163,7920077.21856
327,72000.
347,72000.
841,0.0
866,8290800.
908,0.0
948,0.0
959,0.0
997,1.453846153846154E-005
2,2, 1, 2, 0, 6, 0.00,60.00,Monday
18,18190896.5232145
48,1980019.30464
163,7920077.21856
327,1631111.60690588
347,1631111.60690588
841,0.0
866,8290800.
908,0.0
948,0.0
959,0.0
997,1.453846153846154E-005
2,2, 1, 2, 0, 7, 0.00,60.00,Monday
18,24028712.6961182
48,1980019.30464
163,7920077.21856
327,37792373.9206251
347,1631046.31619364
841,7219616.17290362
866,6909000.
908,0.0
948,36161327.6044315
959,0.0
997,1.453846153846154E-005
2,2, 1, 2, 0, 8, 0.00,60.00,Monday
18,21079751.3053982
48,5940057.91392
163,7920077.21856
327,32817439.7514847
347,72000.
841,7219616.17290362
866,0.0
908,0.0
948,32745439.7514847
959,0.0
997,1.453846153846154E-005
2,2, 1, 2, 0, 9, 0.00,60.00,Monday
18,42868992.4145698
48,17820173.74176
163,17820173.74176
327,6867069.54718919
347,1631271.85517685
841,7219616.17290362
866,0.0
908,9028.75813162575
948,5235797.69201233
959,0.0
997,1.453846153846154E-005
2,2, 1, 2, 0,10, 0.00,60.00,Monday
18,42864606.3252053
48,17820173.74176
163,17820173.74176
327,2902885.6744026
347,1631313.42245156
841,7219616.17290362
866,0.0
908,4642.66876717602
948,1271572.25195104
959,0.0
997,1.453846153846154E-005
2,2, 1, 2, 0,11, 0.00,60.00,Monday
18,43010602.6802746
48,17820173.74176
163,17820173.74176
327,1679040.20761288
347,1631335.87088
841,7219616.17290362
866,0.0
908,150639.023836489
948,47704.3367328866
959,0.0
997,1.453846153846154E-005
2,2, 1, 2, 0,12, 0.00,60.00,Monday
18,43481402.9486033
48,17820173.74176
163,17820173.74176
327,1631330.03025537
347,1631330.03025537
841,7219616.17290362
866,0.0
908,621439.292165186
948,0.0
959,0.0
997,1.453846153846154E-005
2,2, 1, 2, 0,13, 0.00,60.00,Monday
18,41568766.5992432
48,17820173.74176
163,15840154.43712
327,3190525.33319764
347,3190525.33319764
841,7219616.17290362
866,0.0
908,688822.247445073
948,0.0
959,0.0
997,1.453846153846154E-005
2,2, 1, 2, 0,14, 0.00,60.00,Monday
18,43830309.0899185
48,17820173.74176
163,17820173.74176
327,1631227.11032678
347,1631227.11032678
841,7219616.17290362
866,0.0
908,970345.433480299
948,0.0
959,0.0
997,1.453846153846154E-005
2,2, 1, 2, 0,15, 0.00,60.00,Monday
18,43871535.8943213
48,17820173.74176
163,17820173.74176
327,1631152.07756867
347,1631152.07756867
841,7219616.17290362
866,0.0
908,1011572.23788319
948,0.0
959,0.0
997,1.453846153846154E-005
2,2, 1, 2, 0,16, 0.00,60.00,Monday
18,43799850.0254345
48,17820173.74176
163,17820173.74176
327,1631280.16475896
347,1631280.16475896
841,7219616.17290362
866,0.0
908,939886.368996312
948,0.0
959,0.0
997,1.453846153846154E-005
2,2, 1, 2, 0,17, 0.00,60.00,Monday
18,47494228.0124547
48,17820173.74176
163,17820173.74176
327,1631316.6126806
347,1631316.6126806
841,7219616.17290362
866,4145400.
908,488864.35601653
948,0.0
959,0.0
997,1.453846153846154E-005
2,2, 1, 2, 0,18, 0.00,60.00,Monday
18,35312024.6841511
48,9900096.5232
163,9900096.5232
327,1847961.67560893
347,1631259.55544134
841,7219616.17290362
866,8290800.
908,1415.46483289864
948,216702.120167591
959,0.0
997,1.453846153846154E-005
2,2, 1, 2, 0,19, 0.00,60.00,Monday
18,29370551.3053982
48,5940057.91392
163,7920077.21856
327,393265.57361647
347,72000.
841,7219616.17290362
866,8290800.
908,0.0
948,321265.57361647
959,0.0
997,1.453846153846154E-005
2,2, 1, 2, 0,20, 0.00,60.00,Monday
18,29370551.3053982
48,5940057.91392
163,7920077.21856
327,2829282.74899836
347,1631074.05046382
841,7219616.17290362
866,8290800.
908,0.0
948,1198208.69853454
959,0.0
997,1.453846153846154E-005
2,2, 1, 2, 0,21, 0.00,60.00,Monday
18,27390532.0007582
48,3960038.60928
163,7920077.21856
327,4360753.50979929
347,1631168.78867264
841,7219616.17290362
866,8290800.
908,0.0
948,2729584.72112665
959,0.0
997,1.453846153846154E-005
2,2, 1, 2, 0,22, 0.00,60.00,Monday
18,27390532.0007582
48,3960038.60928
163,7920077.21856
327,4679655.45877828
347,1631135.34290771
841,7219616.17290362
866,8290800.
908,0.0
948,3048520.11587057
959,0.0
997,1.453846153846154E-005
2,2, 1, 2, 0,23, 0.00,60.00,Monday
18,18190896.5232145
48,1980019.30464
163,7920077.21856
327,72000.
347,72000.
841,0.0
866,8290800.
908,0.0
948,0.0
959,0.0
997,1.453846153846154E-005
2,2, 1, 2, 0,24, 0.00,60.00,Monday
18,17200886.8708945
48,990009.65232
163,7920077.21856
327,1631091.18346979
347,1631091.18346979
841,0.0
866,8290800.
908,0.0
948,0.0
959,0.0
997,1.453846153846154E-005
2,3, 1, 3, 0, 1, 0.00,60.00,Tuesday
18,17200886.8708945
48,990009.65232
163,7920077.21856
327,1631062.0662646
347,1631062.0662646
841,0.0
866,8290800.
908,0.0
948,0.0
959,0.0
997,1.453846153846154E-005
2,3, 1, 3, 0, 2, 0.00,60.00,Tuesday
18,17200886.8708945
48,990009.65232
163,7920077.21856
327,72000.
347,72000.
841,0.0
866,8290800.
908,0.0
948,0.0
959,0.0
997,1.453846153846154E-005
2,3, 1, 3, 0, 3, 0.00,60.00,Tuesday
18,17200886.8708945
48,990009.65232
163,7920077.21856
327,1631023.85882915
347,1631023.85882915
841,0.0
866,8290800.
908,0.0
948,0.0
959,0.0
997,1.453846153846154E-005
2,3, 1, 3, 0, 4, 0.00,60.00,Tuesday
18,17200886.8708945
48,990009.65232
163,7920077.21856
327,72000.
347,72000.
841,0.0
866,8290800.
908,0.0
948,0.0
959,0.0
997,1.453846153846154E-005
2,3, 1, 3, 0, 5, 0.00,60.00,Tuesday
18,17200886.8708945
48,990009.65232
163,7920077.21856
327,1631116.43485568
347,1631116.43485568
841,0.0
866,8290800.
908,0.0
948,0.0
959,0.0
997,1.453846153846154E-005
2,3, 1, 3, 0, 6, 0.00,60.00,Tuesday
18,18190896.5232145
48,1980019.30464
163,7920077.21856
327,1631117.94125901
347,1631117.94125901
841,0.0
866,8290800.
908,0.0
948,0.0
959,0.0
997,1.453846153846154E-005
2,3, 1, 3, 0, 7, 0.00,60.00,Tuesday
18,24028712.6961182
48,1980019.30464
163,7920077.21856
327,19459174.7149304
347,72000.
841,7219616.17290362
866,6909000.
908,0.0
948,19387174.7149304
959,0.0
997,1.453846153846154E-005
2,3, 1, 3, 0, 8, 0.00,60.00,Tuesday
18,21079751.3053982
48,5940057.91392
163,7920077.21856
327,28859013.9241401
347,1631163.00634648
841,7219616.17290362
866,0.0
908,0.0
948,27227850.9177936
959,0.0
997,1.453846153846154E-005
2,3, 1, 3, 0, 9, 0.00,60.00,Tuesday
18,42866455.458763
48,17820173.74176
163,17820173.74176
327,5604848.62075775
347,1631286.28801733
841,7219616.17290362
866,0.0
908,6491.802324871
948,3973562.33274043
959,0.0
997,1.453846153846154E-005
2,3, 1, 3, 0,10, 0.00,60.00,Tuesday
18,42865399.1278768
48,17820173.74176
163,17820173.74176
327,2051600.80763966
347,1631330.54472065
841,7219616.17290362
866,0.0
908,5435.47143860049
948,420270.262919002
959,0.0
997,1.453846153846154E-005
2,3, 1, 3, 0,11, 0.00,60.00,Tuesday
18,43181647.1423244
48,17820173.74176
163,17820173.74176
327,1631337.15017574
347,1631337.15017574
841,7219616.17290362
866,0.0
908,321683.485886245
948,0.0
959,0.0
997,1.453846153846154E-005
2,3, 1, 3, 0,12, 0.00,60.00,Tuesday
18,43544114.538499
48,17820173.74176
163,17820173.74176
327,1631393.24918473
347,1631393.24918473
841,7219616.17290362
866,0.0
908,684150.882060823
948,0.0
959,0.0
997,1.453846153846154E-005
2,3, 1, 3, 0,13, 0.00,60.00,Tuesday
18,41630658.2221799
48,17820173.74176
163,15840154.43712
327,1631333.45832854
347,1631333.45832854
841,7219616.17290362
866,0.0
908,750713.870381772
948,0.0
959,0.0
997,1.453846153846154E-005
2,3, 1, 3, 0,14, 0.00,60.00,Tuesday
18,43992544.8715486
48,17820173.74176
163,17820173.74176
327,3190882.81363133
347,3190882.81363133
841,7219616.17290362
866,0.0
908,1132581.21511043
948,0.0
959,0.0
997,1.453846153846154E-005
2,3, 1, 3, 0,15, 0.00,60.00,Tuesday
18,44073195.9221815
48,17820173.74176
163,17820173.74176
327,1631302.14637318
347,1631302.14637318
841,7219616.17290362
866,0.0
908,1213232.2657433
948,0.0
959,0.0
997,1.453846153846154E-005
2,3, 1, 3, 0,16, 0.00,60.00,Tuesday
18,43967179.3834797
48,17820173.74176
163,17820173.74176
327,1631280.69527722
347,1631280.69527722
841,7219616.17290362
866,0.0
908,1107215.72704151
948,0.0
959,0.0
997,1.453846153846154E-005
2,3, 1, 3, 0,17, 0.00,60.00,Tuesday
18,47493941.390445
48,17820173.74176
163,17820173.74176
327,1631342.72879473
347,1631342.72879473
841,7219616.17290362
866,4145400.
908,488577.734006853
948,0.0
959,0.0
997,1.453846153846154E-005
2,3, 1, 3, 0,18, 0.00,60.00,Tuesday
18,35318173.2293452
48,9900096.5232
163,9900096.5232
327,1843849.87545393
347,1631244.30346103
841,7219616.17290362
866,8290800.
908,7564.01002705684
948,212605.571992903
959,0.0
997,1.453846153846154E-005
2,3, 1, 3, 0,19, 0.00,60.00,Tuesday
18,29370551.3053982
48,5940057.91392
163,7920077.21856
327,1703555.37095079
347,72000.
841,7219616.17290362
866,8290800.
908,0.0
948,1631555.37095079
959,0.0
997,1.453846153846154E-005
2,3, 1, 3, 0,20, 0.00,60.00,Tuesday
18,29370551.3053982
48,5940057.91392
163,7920077.21856
327,4426985.16266788
347,1631176.76532052
841,7219616.17290362
866,8290800.
908,0.0
948,2795808.39734735
959,0.0
997,1.453846153846154E-005
2,3, 1, 3, 0,21, 0.00,60.00,Tuesday
18,27390532.0007582
48,3960038.60928
163,7920077.21856
327,6271786.49292114
347,1631196.91811455
841,7219616.17290362
866,8290800.
908,0.0
948,4640589.5748066
959,0.0
997,1.453846153846154E-005
2,3, 1, 3, 0,22, 0.00,60.00,Tuesday
18,27390532.0007582
48,3960038.60928
163,7920077.21856
327,9013561.98343361
347,1631092.36393893
841,7219616.17290362
866,8290800.
908,0.0
948,7382469.61949469
959,0.0
997,1.453846153846154E-005
2,3, 1, 3, 0,23, 0.00,60.00,Tuesday
18,18190896.5232145
48,1980019.30464
163,7920077.21856
327,72000.
347,72000.
841,0.0
866,8290800.
908,0.0
948,0.0
959,0.0
997,1.453846153846154E-005
2,3, 1, 3, 0,24, 0.00,60.00,Tuesday
18,17200886.8708945
48,990009.65232
163,7920077.21856
327,1631048.5963966
347,1631048.5963966
841,0.0
866,8290800.
908,0.0
948,0.0
959,0.0
997,1.453846153846154E-005
2,4, 1, 4, 0, 1, 0.00,60.00,Wednesday
18,17200886.8708945
48,990009.65232
163,7920077.21856
327,1631015.01729193
347,1631015.01729193
841,0.0
866,8290800.
908,0.0
948,0.0
959,0.0
997,1.453846153846154E-005
2,4, 1, 4, 0, 2, 0.00,60.00,Wednesday
18,17200886.8708945
48,990009.65232
163,7920077.21856
327,72000.
347,72000.
841,0.0
866,8290800.
908,0.0
948,0.0
959,0.0
997,1.453846153846154E-005
2,4, 1, 4, 0, 3, 0.00,60.00,Wednesday
18,17200886.8708945
48,990009.65232
163,7920077.21856
327,1631107.89829476
347,1631107.89829476
841,0.0
866,8290800.
908,0.0
948,0.0
959,0.0
997,1.453846153846154E-005
2,4, 1, 4, 0, 4, 0.00,60.00,Wednesday
18,17200886.8708945
48,990009.65232
163,7920077.21856
327,72000.
347,72000.
841,0.0
866,8290800.
908,0.0
948,0.0
959,0.0
997,1.453846153846154E-005
2,4, 1, 4, 0, 5, 0.00,60.00,Wednesday
18,17200886.8708945
48,990009.65232
163,7920077.21856
327,1631074.45710413
347,1631074.45710413
841,0.0
866,8290800.
908,0.0
948,0.0
959,0.0
997,1.453846153846154E-005
2,4, 1, 4, 0, 6, 0.00,60.00,Wednesday
18,18190896.5232145
48,1980019.30464
163,7920077.21856
327,1631075.94401776
347,1631075.94401776
841,0.0
866,8290800.
908,0.0
948,0.0
959,0.0
997,1.453846153846154E-005
2,4, 1, 4, 0, 7, 0.00,60.00,Wednesday
18,24028712.6961182
48,1980019.30464
163,7920077.21856
327,20544507.9268071
347,72000.
841,7219616.17290362
866,6909000.
908,0.0
948,20472507.9268071
959,0.0
997,1.453846153846154E-005
2,4, 1, 4, 0, 8, 0.00,60.00,Wednesday
18,21079751.3053982
48,5940057.91392
163,7920077.21856
327,29334758.9744107
347,1631121.13028609
841,7219616.17290362
866,0.0
908,0.0
948,27703637.8441246
959,0.0
997,1.453846153846154E-005
2,4, 1, 4, 0, 9, 0.00,60.00,Wednesday
18,42867289.0002837
48,17820173.74176
163,17820173.74176
327,5352962.5474016
347,1631278.17203908
841,7219616.17290362
866,0.0
908,7325.34384556852
948,3721684.37536252
959,0.0
997,1.453846153846154E-005
2,4, 1, 4, 0,10, 0.00,60.00,Wednesday
18,42863471.7434987
48,17820173.74176
163,17820173.74176
327,2045752.55937661
347,1631330.22157173
841,7219616.17290362
866,0.0
908,3508.08706053899
948,414422.337804881
959,0.0
997,1.453846153846154E-005
2,4, 1, 4, 0,11, 0.00,60.00,Wednesday
18,43090674.4666766
48,17820173.74176
163,17820173.74176
327,1631338.11021797
347,1631338.11021797
841,7219616.17290362
866,0.0
908,230710.810238431
948,0.0
959,0.0
997,1.453846153846154E-005
2,4, 1, 4, 0,12, 0.00,60.00,Wednesday
18,43532341.6595394
48,17820173.74176
163,17820173.74176
327,1631352.85720303
347,1631352.85720303
841,7219616.17290362
866,0.0
908,672378.003101277
948,0.0
959,0.0
997,1.453846153846154E-005
2,4, 1, 4, 0,13, 0.00,60.00,Wednesday
18,41624957.8966142
48,17820173.74176
163,15840154.43712
327,1631427.64681021
347,1631427.64681021
841,7219616.17290362
866,0.0
908,745013.544816031
948,0.0
959,0.0
997,1.453846153846154E-005
2,4, 1, 4, 0,14, 0.00,60.00,Wednesday
18,43949923.1358633
48,17820173.74176
163,17820173.74176
327,3190804.96565837
347,3190804.96565837
841,7219616.17290362
866,0.0
908,1089959.47942518
948,0.0
959,0.0
997,1.453846153846154E-005
2,4, 1, 4, 0,15, 0.00,60.00,Wednesday
18,44048476.2109084
48,17820173.74176
163,17820173.74176
327,1631267.10296296
347,1631267.10296296
841,7219616.17290362
866,0.0
908,1188512.55447028
948,0.0
959,0.0
997,1.453846153846154E-005
2,4, 1, 4, 0,16, 0.00,60.00,Wednesday
18,44161386.1521558
48,17820173.74176
163,17820173.74176
327,1631262.18117188
347,1631262.18117188
841,7219616.17290362
866,0.0
908,1301422.4957176
948,0.0
959,0.0
997,1.453846153846154E-005
2,4, 1, 4, 0,17, 0.00,60.00,Wednesday
18,47750003.4388176
48,17820173.74176
163,17820173.74176
327,1631364.75445926
347,1631364.75445926
841,7219616.17290362
866,4145400.
908,744639.782379456
948,0.0
959,0.0
997,1.453846153846154E-005
2,4, 1, 4, 0,18, 0.00,60.00,Wednesday
18,35317484.8232763
48,9900096.5232
163,9900096.5232
327,1755290.6499103
347,1631211.79110113
841,7219616.17290362
866,8290800.
908,6875.60395809587
948,124078.858809172
959,0.0
997,1.453846153846154E-005
2,4, 1, 4, 0,19, 0.00,60.00,Wednesday
18,29370551.3053982
48,5940057.91392
163,7920077.21856
327,1281527.23108822
347,72000.
841,7219616.17290362
866,8290800.
908,0.0
948,1209527.23108822
959,0.0
997,1.453846153846154E-005
2,4, 1, 4, 0,20, 0.00,60.00,Wednesday
18,29370551.3053982
48,5940057.91392
163,7920077.21856
327,4162532.24366982
347,1631145.50297736
841,7219616.17290362
866,8290800.
908,0.0
948,2531386.74069246
959,0.0
997,1.453846153846154E-005
2,4, 1, 4, 0,21, 0.00,60.00,Wednesday
18,27390532.0007582
48,3960038.60928
163,7920077.21856
327,5850913.68722851
347,1631166.80144995
841,7219616.17290362
866,8290800.
908,0.0
948,4219746.88577857
959,0.0
997,1.453846153846154E-005
2,4, 1, 4, 0,22, 0.00,60.00,Wednesday
18,27390532.0007582
48,3960038.60928
163,7920077.21856
327,8941733.02995167
347,1631062.86615062
841,7219616.17290362
866,8290800.
908,0.0
948,7310670.16380105
959,0.0
997,1.453846153846154E-005
2,4, 1, 4, 0,23, 0.00,60.00,Wednesday
18,18190896.5232145
48,1980019.30464
163,7920077.21856
327,72000.
347,72000.
841,0.0
866,8290800.
908,0.0
948,0.0
959,0.0
997,1.453846153846154E-005
2,4, 1, 4, 0,24, 0.00,60.00,Wednesday
18,17200886.8708945
48,990009.65232
163,7920077.21856
327,1631019.42680035
347,1631019.42680035
841,0.0
866,8290800.
908,0.0
948,0.0
959,0.0
997,1.453846153846154E-005
2,5, 1, 5, 0, 1, 0.00,60.00,Thursday
18,17200886.8708945
48,990009.65232
163,7920077.21856
327,72000.
347,72000.
841,0.0
866,8290800.
908,0.0
948,0.0
959,0.0
997,1.453846153846154E-005
2,5, 1, 5, 0, 2, 0.00,60.00,Thursday
18,17200886.8708945
48,990009.65232
163,7920077.21856
327,1631112.43971973
347,1631112.43971973
841,0.0
866,8290800.
908,0.0
948,0.0
959,0.0
997,1.453846153846154E-005
2,5, 1, 5, 0, 3, 0.00,60.00,Thursday
18,17200886.8708945
48,990009.65232
163,7920077.21856
327,1631079.18618437
347,1631079.18618437
841,0.0
866,8290800.
908,0.0
948,0.0
959,0.0
997,1.453846153846154E-005
2,5, 1, 5, 0, 4, 0.00,60.00,Thursday
18,17200886.8708945
48,990009.65232
163,7920077.21856
327,72000.
347,72000.
841,0.0
866,8290800.
908,0.0
948,0.0
959,0.0
997,1.453846153846154E-005
2,5, 1, 5, 0, 5, 0.00,60.00,Thursday
18,17200886.8708945
48,990009.65232
163,7920077.21856
327,1631045.86056311
347,1631045.86056311
841,0.0
866,8290800.
908,0.0
948,0.0
959,0.0
997,1.453846153846154E-005
2,5, 1, 5, 0, 6, 0.00,60.00,Thursday
18,18190896.5232145
48,1980019.30464
163,7920077.21856
327,1631047.4281998
347,1631047.4281998
841,0.0
866,8290800.
908,0.0
948,0.0
959,0.0
997,1.453846153846154E-005
2,5, 1, 5, 0, 7, 0.00,60.00,Thursday
18,24028712.6961182
48,1980019.30464
163,7920077.21856
327,19871211.7063872
347,72000.
841,7219616.17290362
866,6909000.
908,0.0
948,19799211.7063872
959,0.0
997,1.453846153846154E-005
2,5, 1, 5, 0, 8, 0.00,60.00,Thursday
18,21079751.3053982
48,5940057.91392
163,7920077.21856
327,28109129.2567801
347,1631092.81054879
841,7219616.17290362
866,0.0
908,0.0
948,26478036.4462314
959,0.0
997,1.453846153846154E-005
2,5, 1, 5, 0, 9, 0.00,60.00,Thursday
18,42864434.0078994
48,17820173.74176
163,17820173.74176
327,4920683.43750606
347,1631301.66572311
841,7219616.17290362
866,0.0
908,4470.35146126164
948,3289381.77178296
959,0.0
997,1.453846153846154E-005
2,5, 1, 5, 0,10, 0.00,60.00,Thursday
18,42860812.6233105
48,17820173.74176
163,17820173.74176
327,2117653.47310865
347,1631344.01419566
841,7219616.17290362
866,0.0
908,848.966872360029
948,486309.458912992
959,0.0
997,1.453846153846154E-005
2,5, 1, 5, 0,11, 0.00,60.00,Thursday
18,42992146.7031557
48,17820173.74176
163,17820173.74176
327,1631353.41674375
347,1631353.41674375
841,7219616.17290362
866,0.0
908,132183.046717488
948,0.0
959,0.0
997,1.453846153846154E-005
2,5, 1, 5, 0,12, 0.00,60.00,Thursday
18,43314456.5682438
48,17820173.74176
163,17820173.74176
327,1631365.61535325
347,1631365.61535325
841,7219616.17290362
866,0.0
908,454492.911805669
948,0.0
959,0.0
997,1.453846153846154E-005
2,5, 1, 5, 0,13, 0.00,60.00,Thursday
18,40963339.6798432
48,17820173.74176
163,15840154.43712
327,1631402.7026321
347,1631402.7026321
841,7219616.17290362
866,0.0
908,83395.3280450666
948,0.0
959,0.0
997,1.453846153846154E-005
2,5, 1, 5, 0,14, 0.00,60.00,Thursday
18,43565325.7527072
48,17820173.74176
163,17820173.74176
327,3190767.28532475
347,3190767.28532475
841,7219616.17290362
866,0.0
908,705362.096269004
948,0.0
959,0.0
997,1.453846153846154E-005
2,5, 1, 5, 0,15, 0.00,60.00,Thursday
18,43556385.6770221
48,17820173.74176
163,17820173.74176
327,1631312.80858778
347,1631312.80858778
841,7219616.17290362
866,0.0
908,696422.020583936
948,0.0
959,0.0
997,1.453846153846154E-005
2,5, 1, 5, 0,16, 0.00,60.00,Thursday
18,43253656.8458449
48,17820173.74176
163,17820173.74176
327,1631307.05420205
347,1631307.05420205
841,7219616.17290362
866,0.0
908,393693.189406732
948,0.0
959,0.0
997,1.453846153846154E-005
2,5, 1, 5, 0,17, 0.00,60.00,Thursday
18,47176259.4242799
48,17820173.74176
163,17820173.74176
327,1631363.21961227
347,1631363.21961227
841,7219616.17290362
866,4145400.
908,170895.767841701
948,0.0
959,0.0
997,1.453846153846154E-005
2,5, 1, 5, 0,18, 0.00,60.00,Thursday
18,35311939.0631057
48,9900096.5232
163,9900096.5232
327,264140.421141718
347,72000.
841,7219616.17290362
866,8290800.
908,1329.84378757685
948,192140.421141718
959,0.0
997,1.453846153846154E-005
2,5, 1, 5, 0,19, 0.00,60.00,Thursday
18,29370551.3053982
48,5940057.91392
163,7920077.21856
327,2491439.0248032
347,1631240.92592634
841,7219616.17290362
866,8290800.
908,0.0
948,860198.098876867
959,0.0
997,1.453846153846154E-005
2,5, 1, 5, 0,20, 0.00,60.00,Thursday
18,29370551.3053982
48,5940057.91392
163,7920077.21856
327,3510393.23825068
347,1631121.62388919
841,7219616.17290362
866,8290800.
908,0.0
948,1879271.61436149
959,0.0
997,1.453846153846154E-005
2,5, 1, 5, 0,21, 0.00,60.00,Thursday
18,27390532.0007582
48,3960038.60928
163,7920077.21856
327,5261274.66675934
347,1631149.59188827
841,7219616.17290362
866,8290800.
908,0.0
948,3630125.07487107
959,0.0
997,1.453846153846154E-005
2,5, 1, 5, 0,22, 0.00,60.00,Thursday
18,27390532.0007582
48,3960038.60928
163,7920077.21856
327,7726100.97461954
347,1631046.17168129
841,7219616.17290362
866,8290800.
908,0.0
948,6095054.80293825
959,0.0
997,1.453846153846154E-005
2,5, 1, 5, 0,23, 0.00,60.00,Thursday
18,18190896.5232145
48,1980019.30464
163,7920077.21856
327,72000.
347,72000.
841,0.0
866,8290800.
908,0.0
948,0.0
959,0.0
997,1.453846153846154E-005
2,5, 1, 5, 0,24, 0.00,60.00,Thursday
18,17200886.8708945
48,990009.65232
163,7920077.21856
327,1631002.99003447
347,1631002.99003447
841,0.0
866,8290800.
908,0.0
948,0.0
959,0.0
997,1.453846153846154E-005
2,6, 1, 6, 0, 1, 0.00,60.00,Friday
18,17200886.8708945
48,990009.65232
163,7920077.21856
327,72000.
347,72000.
841,0.0
866,8290800.
908,0.0
948,0.0
959,0.0
997,1.453846153846154E-005
2,6, 1, 6, 0, 2, 0.00,60.00,Friday
18,17200886.8708945
48,990009.65232
163,7920077.21856
327,1631096.32797543
347,1631096.32797543
841,0.0
866,8290800.
908,0.0
948,0.0
959,0.0
997,1.453846153846154E-005
2,6, 1, 6, 0, 3, 0.00,60.00,Friday
18,17200886.8708945
48,990009.65232
163,7920077.21856
327,1631063.2038559
347,1631063.2038559
841,0.0
866,8290800.
908,0.0
948,0.0
959,0.0
997,1.453846153846154E-005
2,6, 1, 6, 0, 4, 0.00,60.00,Friday
18,17200886.8708945
48,990009.65232
163,7920077.21856
327,72000.
347,72000.
841,0.0
866,8290800.
908,0.0
948,0.0
959,0.0
997,1.453846153846154E-005
2,6, 1, 6, 0, 5, 0.00,60.00,Friday
18,17200886.8708945
48,990009.65232
163,7920077.21856
327,1631030.01696231
347,1631030.01696231
841,0.0
866,8290800.
908,0.0
948,0.0
959,0.0
997,1.453846153846154E-005
2,6, 1, 6, 0, 6, 0.00,60.00,Friday
18,18190896.5232145
48,1980019.30464
163,7920077.21856
327,1631031.73256525
347,1631031.73256525
841,0.0
866,8290800.
908,0.0
948,0.0
959,0.0
997,1.453846153846154E-005
2,6, 1, 6, 0, 7, 0.00,60.00,Friday
18,24028712.6961182
48,1980019.30464
163,7920077.21856
327,14025782.4294402
347,72000.
841,7219616.17290362
866,6909000.
908,0.0
948,13953782.4294402
959,0.0
997,1.453846153846154E-005
2,6, 1, 6, 0, 8, 0.00,60.00,Friday
18,21079751.3053982
48,5940057.91392
163,7920077.21856
327,21134945.738754
347,1631077.36165865
841,7219616.17290362
866,0.0
908,0.0
948,19503868.3770954
959,0.0
997,1.453846153846154E-005
2,6, 1, 6, 0, 9, 0.00,60.00,Friday
18,42876657.8790591
48,17820173.74176
163,17820173.74176
327,3628560.30550777
347,1631268.97422761
841,7219616.17290362
866,0.0
908,16694.2226208971
948,1997291.33128017
959,0.0
997,1.453846153846154E-005
2,6, 1, 6, 0,10, 0.00,60.00,Friday
18,42871640.7727249
48,17820173.74176
163,17820173.74176
327,1671986.56481329
347,1631329.72951665
841,7219616.17290362
866,0.0
908,11677.116286737
948,40656.8352966407
959,0.0
997,1.453846153846154E-005
2,6, 1, 6, 0,11, 0.00,60.00,Friday
18,43233252.2354917
48,17820173.74176
163,17820173.74176
327,1631339.66681274
347,1631339.66681274
841,7219616.17290362
866,0.0
908,373288.579053552
948,0.0
959,0.0
997,1.453846153846154E-005
2,6, 1, 6, 0,12, 0.00,60.00,Friday
18,43586065.5965168
48,17820173.74176
163,17820173.74176
327,1631353.14340592
347,1631353.14340592
841,7219616.17290362
866,0.0
908,726101.940078676
948,0.0
959,0.0
997,1.453846153846154E-005
2,6, 1, 6, 0,13, 0.00,60.00,Friday
18,41651002.7740463
48,17820173.74176
163,15840154.43712
327,1631391.62115171
347,1631391.62115171
841,7219616.17290362
866,0.0
908,771058.422248118
948,0.0
959,0.0
997,1.453846153846154E-005
2,6, 1, 6, 0,14, 0.00,60.00,Friday
18,43926378.2584741
48,17820173.74176
163,17820173.74176
327,3190736.98257137
347,3190736.98257137
841,7219616.17290362
866,0.0
908,1066414.60203593
948,0.0
959,0.0
997,1.453846153846154E-005
2,6, 1, 6, 0,15, 0.00,60.00,Friday
18,43970841.230958
48,17820173.74176
163,17820173.74176
327,1631237.48744447
347,1631237.48744447
841,7219616.17290362
866,0.0
908,1110877.57451983